% Model:              AssociatedLegendreDatabase.mph
% Version:            COMSOL 5.6.0.341
% Date:               Jul 20 2022, 21:21
% Dimension:          1
% Nodes:              505
% Expressions:        1
% Description:        Line graph
% X                       Height
-1                        0
-0.9934290035238181       1.208056413506404E-7
-0.9868580070476363       1.208056413506404E-7
-0.9802870105714544       0
-0.9737160140952725       -2.4161128270128075E-7
-0.9671450176190907       -6.040282067532021E-7
-0.9605740211429088       -1.0872507721557635E-6
-0.9540030246667269       -6.845653009869623E-7
-0.9474320281905451       -3.2214837693504104E-7
-0.9408610317143632       0
-0.9342900352381813       2.818798298181609E-7
-0.9277190387619995       5.234911125194419E-7
-0.9211480422858176       7.248338481038423E-7
-0.9145770458096357       1.530204790441445E-6
-0.9080060493334539       2.013427355844007E-6
-0.901435052857272        2.174501544311527E-6
-0.8948640563810901       2.013427355844007E-6
-0.8882930599049083       1.530204790441445E-6
-0.8817220634287264       7.248338481038423E-7
-0.8751510669525446       -4.832225654025616E-7
-0.8685800704763628       -1.2080564135064042E-6
-0.8620090740001809       -1.4496676962076846E-6
-0.855438077523999        -1.2080564135064042E-6
-0.8488670810478172       -4.832225654025614E-7
-0.8422960845716353       7.248338481038423E-7
-0.8357250880954534       -5.637596596363218E-7
-0.8291540916192717       -1.2885935077401644E-6
-0.8225830951430897       -1.4496676962076846E-6
-0.8160120986669077       -1.0469822250388836E-6
-0.8094411021907258       -8.053709423375998E-8
-0.802870105714544        1.4496676962076846E-6
-0.7962991092383622       6.442967538700822E-7
-0.7897281127621804       1.610741884675205E-7
-0.7831571162859985       0
-0.7765861198098166       1.6107418846752036E-7
-0.7700151233336348       6.442967538700822E-7
-0.7634441268574529       1.4496676962076846E-6
-0.756873130381271        -1.1275193192726437E-6
-0.7503021339050893       -2.5771870154803288E-6
-0.7437311374289073       -2.8993353924153693E-6
-0.7371601409527253       -2.093964450077767E-6
-0.7305891444765434       -1.6107418846751996E-7
-0.7240181480003616       2.8993353924153693E-6
-0.7174471515241798       1.4496676962076846E-6
-0.710876155047998        4.832225654025615E-7
-0.7043051585718161       0
-0.6977341620956343       -2.4141816815776174E-22
-0.6911631656194525       4.832225654025616E-7
-0.6845921691432706       1.4496676962076846E-6
-0.6780211726670888       -2.2550386385452874E-6
-0.6714501761909069       -4.187928900155534E-6
-0.6648791797147249       -4.349003088623054E-6
-0.6583081832385431       -2.73826120394785E-6
-0.6517371867623611       6.44296753870083E-7
-0.6451661902861793       5.7986707848307385E-6
-0.6385951938099975       9.664451308051232E-7
-0.6320241973338157       -2.4161128270128085E-6
-0.6254532008576337       -4.349003088623054E-6
-0.6188822043814519       -4.832225654025617E-6
-0.61231120790527         -3.865780523220493E-6
-0.6057402114290882       -1.4496676962076846E-6
-0.5991692149529064       1.771816073142726E-6
-0.5925982184767244       3.7047063347529722E-6
-0.5860272220005425       4.349003088623054E-6
-0.5794562255243607       3.7047063347529722E-6
-0.5728852290481787       1.7718160731427254E-6
-0.5663142325719969       -1.4496676962076846E-6
-0.559743236095815        -1.6107418846752053E-6
-0.5531722396196331       -1.6107418846752053E-6
-0.5466012431434513       -1.4496676962076846E-6
-0.5400302466672693       -1.1275193192726437E-6
-0.5334592501910874       -6.442967538700819E-7
-0.5268882537149056       0
-0.5203172572387237       -2.2550386385452874E-6
-0.5137462607625418       -3.2214837693504106E-6
-0.50717526428636         -2.8993353924153693E-6
-0.5006042678101781       -1.2885935077401648E-6
-0.4940332713339962       1.6107418846752064E-6
-0.48746227485781435      5.7986707848307385E-6
-0.4808912783816325       2.416112827012808E-6
-0.4743202819054506       -1.6094544543850782E-22
-0.4677492854292687       -1.4496676962076846E-6
-0.46117828895308677      -1.9328902616102465E-6
-0.4546072924769049       -1.4496676962076846E-6
-0.44803629600072303      0
-0.44146529952454117      -1.1275193192726437E-6
-0.4348943030483593       -1.6107418846752053E-6
-0.42832330657217743      -1.4496676962076846E-6
-0.42175231009599556      -6.442967538700824E-7
-0.4151813136198137       8.053709423376032E-7
-0.40861031714363183      2.8993353924153693E-6
-0.40203932066744996      -4.349003088623054E-6
-0.3954683241912681       -8.69800617724611E-6
-0.38889732771508617      -1.0147673873453793E-5
-0.3823263312389043       -8.698006177246108E-6
-0.3757553347627224       -4.349003088623053E-6
-0.3691843382865405       2.8993353924153693E-6
-0.36261334181035865      3.543632146285452E-6
-0.3560423453341768       3.543632146285452E-6
-0.3494713488579949       2.8993353924153693E-6
-0.342900352381813        1.6107418846752053E-6
-0.3363293559056311       -3.2214837693504184E-7
-0.32975835942944925      -2.8993353924153693E-6
-0.3231873629532674       -8.053709423376027E-7
-0.3166163664770855       6.442967538700822E-7
-0.3100453700009036       1.4496676962076846E-6
-0.30347437352472173      1.6107418846752053E-6
-0.29690337704853986      1.1275193192726437E-6
-0.290332380572358        0
-0.28376138409617613      6.442967538700822E-7
-0.27719038761999426      1.1275193192726437E-6
-0.27061939114381234      1.4496676962076846E-6
-0.2640483946676304       1.6107418846752053E-6
-0.25747739819144855      1.6107418846752053E-6
-0.2509064017152667       1.4496676962076846E-6
-0.2443354052390842       1.4496676962076846E-6
-0.23776440876290172      1.4496676962076846E-6
-0.23119341228671922      1.4496676962076846E-6
-0.2246224158105367       1.4496676962076846E-6
-0.21805141933435424      1.4496676962076846E-6
-0.21148042285817176      1.4496676962076846E-6
-0.20987829844257955      -6.442967538700822E-7
-0.20827617402698734      -2.093964450077767E-6
-0.20667404961139513      -2.8993353924153693E-6
-0.20507192519580292      -3.06040958088289E-6
-0.2034698007802107       -2.5771870154803283E-6
-0.2018676763646185       -1.4496676962076846E-6
-0.2002655519490263       -1.9328902616102465E-6
-0.19866342753343408      -1.9328902616102465E-6
-0.19706130311784187      -1.4496676962076846E-6
-0.19545917870224963      -4.832225654025618E-7
-0.19385705428665742      9.664451308051237E-7
-0.1922549298710652       2.8993353924153693E-6
-0.190652805455473        -4.832225654025616E-7
-0.1890506810398808       -2.8993353924153693E-6
-0.18744855662428855      -4.349003088623054E-6
-0.18584643220869634      -4.832225654025616E-6
-0.18424430779310413      -4.349003088623054E-6
-0.18264218337751192      -2.8993353924153693E-6
-0.18104005896191971      -3.865780523220492E-6
-0.1794379345463275       -4.349003088623054E-6
-0.1778358101307353       -4.349003088623054E-6
-0.17623368571514308      -3.865780523220493E-6
-0.17463156129955087      -2.8993353924153693E-6
-0.17302943688395866      -1.4496676962076846E-6
-0.17142731246836646      -1.2885935077401644E-6
-0.16982518805277425      -1.2885935077401644E-6
-0.16822306363718204      -1.4496676962076846E-6
-0.16662093922158983      -1.7718160731427256E-6
-0.16501881480599762      -2.255038638545288E-6
-0.1634166903904054       -2.8993353924153693E-6
-0.1618145659748132       -4.6711514655580955E-6
-0.16021244155922099      -5.637596596363219E-6
-0.15861031714362878      -5.7986707848307385E-6
-0.15700819272803654      -5.1543740309606575E-6
-0.15540606831244433      -3.704706334752972E-6
-0.15380394389685212      -1.4496676962076846E-6
-0.1522018194812599       -2.5771870154803288E-6
-0.1505996950656677       -3.543632146285452E-6
-0.14899757065007546      -4.349003088623054E-6
-0.14739544623448325      -4.993299842493137E-6
-0.14579332181889104      -5.476522407895698E-6
-0.14419119740329883      -5.7986707848307385E-6
-0.14258907298770662      -4.349003088623054E-6
-0.1409869485721144       -2.8993353924153693E-6
-0.1393848241565222       -1.4496676962076846E-6
-0.13778269974093         0
-0.13618057532533778      1.4496676962076853E-6
-0.13457845090974557      2.8993353924153693E-6
-0.13297632649415336      6.12081916176578E-6
-0.13137420207856115      9.50337711958371E-6
-0.12977207766296894      1.3047009265869163E-5
-0.12816995324737673      1.6751715600622134E-5
-0.12656782883178452      2.061749612384263E-5
-0.1249657044161923       2.464435083553064E-5
-0.12336358000060009      2.8349057170283616E-5
-0.12176145558500788      3.511417308591948E-5
-0.12015933116941566      4.4939698582438226E-5
-0.11855720675382345      5.7825633659839866E-5
-0.11695508233823124      7.377197831812441E-5
-0.11535295792263903      9.277873255729182E-5
-0.11375083350704682      1.1291300611573188E-4
-0.11214870909145461      1.3949024721287277E-4
-0.1105465846758624       1.7251045584871448E-4
-0.10894446026027019      2.1197363202325698E-4
-0.10734233584467796      2.578797757365004E-4
-0.10574021142908575      3.102288869884445E-4
-0.10413808701349353      3.7272567211384247E-4
-0.10253596259790133      4.510077277090574E-4
-0.10093383818230911      5.450750537740895E-4
-0.0993317137667169       6.549276503089385E-4
-0.09772958935112469      7.805655173136045E-4
-0.09612746493553248      9.219886547880875E-4
-0.09452534051994027      0.0010846735851402832
-0.09292321610434806      0.0012745800533434898
-0.09132109168875585      0.0014917080593977077
-0.08971896727316364      0.001736057603302936
-0.08811684285757143      0.002007628685059176
-0.08651471844197921      0.0023064213046664265
-0.084912594026387        0.002643227432752012
-0.08331046961079479      0.003011443027588764
-0.08170834519520256      0.0034110680891766823
-0.08010622077961035      0.003842102617515767
-0.07850409636401814      0.004304546612606019
-0.07690197194842593      0.0047984000744474365
-0.07529984753283372      0.005329300599636384
-0.07369772311724151      0.005870993095452656
-0.0720955987016493       0.006423477561896251
-0.07049347428605708      0.00698675399896717
-0.06889134987046487      0.007560822406665413
-0.06728922545487266      0.00814568278499098
-0.06568710103928045      0.008723778047400913
-0.06408497662368824      0.009250973866255107
-0.062482852208096025     0.009727270241553565
-0.060880727792503815     0.010152667173296286
-0.0592786033769116       0.010527164661483271
-0.05767647896131939      0.010850762706114521
-0.05607435454572718      0.011076588718345985
-0.05447223013013497      0.011180481569907535
-0.052870105714542745     0.011162441260799173
-0.051267981298950535     0.011022467791020897
-0.049665856883358325     0.010760561160572708
-0.04806373246776611      0.010376721369454608
-0.0464616080521739       0.009824236903011013
-0.04485948363658169      0.009141926640662596
-0.04325735922098947      0.008329790582409357
-0.04165523480539726      0.007387828728251297
-0.04005311038980504      0.006316041078188415
-0.03845098597421283      0.005114427632220712
-0.03684886155862062      0.0037920085449023684
-0.03524673714302841      0.00245106592591026
-0.033644612727436185     0.0010915997752443867
-0.032042488311843975     -2.8638990709525146E-4
-0.03044036389625176      -0.0016829031211086551
-0.02883823948065955      -0.0030979398667958223
-0.027236115065067335     -0.004440815376049541
-0.025633990649475125     -0.005635341557724674
-0.02403186623388291      -0.006681518411821219
-0.022429741818290695     -0.0075793459383391775
-0.020827617402698482     -0.008328824137278552
-0.01922549298710627      -0.008929953008639338
-0.017623368571514055     -0.009275940365467573
-0.016021244155921845     -0.009398678897079824
-0.014419119740329632     -0.00929816860347609
-0.01281699532473742      -0.008974409484656373
-0.011214870909145209     -0.008427401540620674
-0.009612746493552995     -0.007657144771368991
-0.008010622077960784     -0.006645759941981431
-0.006408497662368571     -0.005528066148205304
-0.004806373246776359     -0.004304063390040616
-0.003204248831184147     -0.002973751667487364
-0.0016021244155919343    -0.0015371309805455476
2.7755575615628914E-16    5.7986707848307385E-6
0.0016021244155924898     0.0015535605477692356
0.003204248831184702      0.002992597347538064
0.004806373246776914      0.004322909070091316
0.0064084976623691265     0.005544495715428991
0.008010622077961339      0.0066573572835510915
0.00961274649355355       0.007661493774457614
0.011214870909145762      0.008427884763186077
0.012816995324737976      0.008970543704133154
0.014419119740330187      0.009289470597298843
0.0160212441559224        0.00938466544268315
0.017623368571514614      0.009256128240286068
0.019225492987106824      0.008903858990107599
0.02082761740269904       0.008298220041469724
0.02242974181829125       0.007544392839441727
0.024031866233883464      0.006642377384023611
0.025633990649475677      0.005592173675215377
0.027236115065067894      0.004393781713017025
0.028838239480660104      0.0030472014974285535
0.03044036389625232       0.0016336144194375932
0.03204248831184453       2.404837633820081E-4
0.03364461272743674       -0.0011321904707382018
0.03524673714302896       -0.002484408282923036
0.036848861558621174      -0.003816169673172497
0.038450985974213384      -0.005127474641486581
0.0400531103898056        -0.006316041078188415
0.04165523480539781       -0.0073771978318124395
0.04325735922099003       -0.008310944902358657
0.04485948363658224       -0.009117282289827064
0.04646160805217445       -0.009796209994217663
0.048063732467766664      -0.010347728015530454
0.04966585688335887       -0.0107338228452871
0.05126798129895109       -0.010998145588562302
0.0528701057145433        -0.011140696245356057
0.05447223013013552       -0.011161474815668367
0.056074354545727734      -0.011060481299499233
0.057676478961319944      -0.010837715696848651
0.05927860337691215       -0.01052152706488691
0.06088072779250437       -0.010154277915180962
0.06248285220809658       -0.009735968247730811
0.06408497662368878       -0.009266598062536454
0.065687101039281         -0.008746167359597896
0.06728922545487322       -0.008174676138915133
0.06889134987046544       -0.0075960976539398
0.07049347428605765       -0.00702637824933018
0.07209559870164986       -0.006465517925086274
0.07369772311724207       -0.00591351668120808
0.07529984753283428       -0.0053703745176956015
0.07690197194842649       -0.004836091434548836
0.0785040963640187        -0.0043399829340688735
0.08010622077961092       -0.0038751228261516093
0.08170834519520312       -0.0034415111107970434
0.08331046961079534       -0.003039147788005177
0.08491259402638755       -0.00266803285777601
0.08651471844197976       -0.0023281663201095417
0.08811684285757197       -0.002026313290921408
0.0897189672731642        -0.0017518428737727534
0.0913210916887564        -0.0015047550686635768
0.09292321610434862       -0.0012850498755938786
0.09452534051994083       -0.0010927272945636592
0.09612746493553304       -9.277873255729182E-4
0.09772958935112525       -7.823373333867473E-4
0.09933171376671747       -6.533169084242634E-4
0.10093383818230967       -5.407260506854664E-4
0.10253596259790189       -4.4456476017035667E-4
0.1041380870134941        -3.6483303687893394E-4
0.10574021142908631       -3.0153088081119844E-4
0.10734233584467853       -2.467656567322415E-4
0.10894446026027074       -1.9892662275738785E-4
0.11054658467586295       -1.5801377888663765E-4
0.11214870909145516       -1.2402712511999078E-4
0.11375083350704737       -9.696666145744733E-5
0.11535295792263958       -7.683238789900729E-5
0.1169550823382318        -6.056389486378772E-5
0.118557206753824         -4.655044046711344E-5
0.12015933116941621       -3.479202470898443E-5
0.12176145558500842       -2.528864758940072E-5
0.12336358000060063       -1.8040309108362292E-5
0.12496570441619285       -1.3047009265869163E-5
0.12656782883178508       -1.0469822250388834E-5
0.1281699532473773        -8.053709423376026E-6
0.1297720776629695        -5.7986707848307385E-6
0.1313742020785617        -3.704706334752972E-6
0.13297632649415392       -1.7718160731427247E-6
0.13457845090974613       0
0.13618057532533834       -1.6107418846752052E-7
0.13778269974093058       -6.442967538700822E-7
0.13938482415652276       -1.4496676962076846E-6
0.140986948572115         -2.5771870154803283E-6
0.1425890729877072        -4.026854711688014E-6
0.14419119740329941       -5.7986707848307385E-6
0.14579332181889162       -4.026854711688013E-6
0.14739544623448386       -3.06040958088289E-6
0.14899757065007607       -2.8993353924153693E-6
0.15059969506566828       -3.543632146285451E-6
0.1522018194812605        -4.993299842493137E-6
0.1538039438968527        -7.248338481038424E-6
0.1554060683124449        -5.637596596363219E-6
0.15700819272803712       -4.187928900155534E-6
0.15861031714362933       -2.8993353924153693E-6
0.16021244155922157       -1.7718160731427256E-6
0.16181456597481378       -8.05370942337602E-7
0.163416690390406         0
0.16501881480599823       1.1275193192726437E-6
0.16662093922159044       1.6107418846752053E-6
0.16822306363718265       1.4496676962076846E-6
0.16982518805277486       6.442967538700824E-7
0.17142731246836707       -8.053709423376032E-7
0.17302943688395928       -2.8993353924153693E-6
0.17463156129955149       -2.738261203947849E-6
0.17623368571514364       -2.738261203947849E-6
0.17783581013073585       -2.8993353924153693E-6
0.179437934546328         -3.22148376935041E-6
0.18104005896192019       -3.7047063347529722E-6
0.1826421833775124        -4.349003088623054E-6
0.18424430779310458       -3.7047063347529722E-6
0.1858464322086968        -2.738261203947849E-6
0.18744855662428894       -1.4496676962076846E-6
0.18905068103988115       1.6107418846752036E-7
0.19065280545547333       2.0939644500777676E-6
0.19225492987106552       4.349003088623054E-6
0.1938570542866577        3.2214837693504106E-6
0.1954591787022499        2.2550386385452874E-6
0.1970613031178421        1.4496676962076846E-6
0.19866342753343424       8.053709423376026E-7
0.20026555194902645       3.221483769350407E-7
0.20186767636461864       0
0.20346980078021082       -1.6107418846752053E-6
0.20507192519580303       -2.5771870154803288E-6
0.20667404961139518       -2.8993353924153693E-6
0.2082761740269874        -2.5771870154803288E-6
0.20987829844257958       -1.610741884675205E-6
0.21148042285817176       0
0.21805141933435368       -2.416112827012808E-6
0.22462241581053558       -3.865780523220493E-6
0.23119341228671747       -4.349003088623054E-6
0.23776440876289937       -3.865780523220493E-6
0.2443354052390813        -2.4161128270128077E-6
0.2509064017152632        0
0.2574773981914451        -3.2214837693504106E-6
0.264048394667627         -5.1543740309606575E-6
0.2706193911438089        -5.7986707848307385E-6
0.2771903876199908        -5.1543740309606575E-6
0.2837613840961727        -3.22148376935041E-6
0.2903323805723546        0
0.29690337704853653       -1.9328902616102465E-6
0.30347437352471845       -3.3825579578179313E-6
0.3100453700009003        -4.349003088623054E-6
0.31661636647708225       -4.832225654025616E-6
0.3231873629532641        -4.832225654025616E-6
0.32975835942944604       -4.349003088623054E-6
0.33632935590562796       -3.7047063347529722E-6
0.3429003523818098        -2.738261203947849E-6
0.34947134885799175       -1.4496676962076846E-6
0.35604234533417367       1.6107418846752036E-7
0.36261334181035554       2.0939644500777676E-6
0.36918433828653746       4.349003088623054E-6
0.3757553347627194        2.5771870154803288E-6
0.3823263312389013        1.6107418846752053E-6
0.38889732771508323       1.4496676962076846E-6
0.3954683241912651        2.0939644500777663E-6
0.4020393206674471        3.543632146285452E-6
0.40861031714362894       5.7986707848307385E-6
0.41518131361981087       2.416112827012808E-6
0.4217523100959928        -1.6094544543850782E-22
0.42832330657217466       -1.4496676962076846E-6
0.4348943030483565        -1.9328902616102465E-6
0.4414652995245385        -1.4496676962076846E-6
0.44803629600072037       0
0.4546072924769023        -1.1275193192726437E-6
0.4611782889530842        -1.6107418846752053E-6
0.4677492854292661        -1.4496676962076846E-6
0.474320281905448         -6.442967538700824E-7
0.48089127838162987       8.053709423376032E-7
0.4874622748578118        2.8993353924153693E-6
0.49403327133399366       0
0.5006042678101756        -1.9328902616102465E-6
0.5071752642863575        -2.8993353924153693E-6
0.5137462607625394        -2.8993353924153693E-6
0.5203172572387214        -1.932890261610246E-6
0.5268882537149032        0
0.5334592501910852        8.053709423376027E-7
0.5400302466672671        1.2885935077401644E-6
0.5466012431434489        1.4496676962076846E-6
0.5531722396196308        1.2885935077401644E-6
0.5597432360958128        8.053709423376026E-7
0.5663142325719946        0
0.5728852290481766        1.6107418846752053E-6
0.5794562255243585        2.5771870154803288E-6
0.5860272220005405        2.8993353924153693E-6
0.5925982184767223        2.5771870154803288E-6
0.5991692149529043        1.610741884675205E-6
0.6057402114290862        0
0.6123112079052682        3.221483769350411E-7
0.61888220438145          3.221483769350411E-7
0.6254532008576319        0
0.6320241973338139        -6.442967538700819E-7
0.6385951938099956        -1.6107418846752057E-6
0.6451661902861776        -2.8993353924153693E-6
0.6517371867623595        -1.9328902616102465E-6
0.6583081832385415        -1.449667696207685E-6
0.6648791797147233        -1.4496676962076846E-6
0.6714501761909052        -1.932890261610246E-6
0.6780211726670872        -2.8993353924153693E-6
0.684592169143269         -4.349003088623054E-6
0.691163165619451         -1.1275193192726437E-6
0.6977341620956329        8.053709423376029E-7
0.7043051585718147        1.4496676962076846E-6
0.7108761550479967        8.05370942337603E-7
0.7174471515241786        -1.1275193192726441E-6
0.7240181480003605        -4.349003088623054E-6
0.7305891444765424        -2.416112827012808E-6
0.7371601409527243        -9.66445130805123E-7
0.7437311374289062        0
0.7503021339050882        4.832225654025618E-7
0.7568731303812699        4.832225654025618E-7
0.7634441268574519        0
0.7700151233336339        4.832225654025616E-7
0.7765861198098158        4.832225654025616E-7
0.7831571162859976        0
0.7897281127621796        -9.66445130805123E-7
0.7962991092383616        -2.4161128270128085E-6
0.8028701057145434        -4.349003088623054E-6
0.8094411021907254        -1.4496676962076846E-6
0.8160120986669073        4.832225654025617E-7
0.8225830951430891        1.4496676962076846E-6
0.829154091619271         1.449667696207685E-6
0.8357250880954529        4.832225654025615E-7
0.8422960845716349        -1.4496676962076846E-6
0.8488670810478167        -5.637596596363218E-7
0.8554380775239987        1.6107418846752057E-7
0.8620090740001806        7.248338481038423E-7
0.8685800704763624        1.1275193192726435E-6
0.8751510669525444        1.3691306019739247E-6
0.8817220634287263        1.4496676962076846E-6
0.8882930599049081        2.3355757327790477E-6
0.8948640563810901        2.8187982981816094E-6
0.901435052857272         2.8993353924153693E-6
0.9080060493334539        2.5771870154803288E-6
0.9145770458096358        1.852353167376486E-6
0.9211480422858177        7.248338481038423E-7
0.9277190387619997        6.04028206753202E-7
0.9342900352381815        4.832225654025616E-7
0.9408610317143634        3.6241692405192116E-7
0.9474320281905453        2.4161128270128075E-7
0.9540030246667272        1.2080564135064032E-7
0.9605740211429091        0
0.9671450176190909        0
0.9737160140952728        0
0.9802870105714545        0
0.9868580070476364        0
0.9934290035238182        0
1                         0
