% Model:              AssociatedLegendreDatabase.mph
% Version:            COMSOL 5.6.0.341
% Date:               Jul 20 2022, 20:28
% Dimension:          1
% Nodes:              505
% Expressions:        1
% Description:        Line graph
% X                       Height
-1                        0
-0.9935300566479166       5.634952029653371E-7
-0.9870601132958331       5.634952029653371E-7
-0.9805901699437496       0
-0.9741202265916661       -1.1269904059306738E-6
-0.9676502832395826       -2.817476014826686E-6
-0.9611803398874991       -5.071456826688033E-6
-0.9547103965354156       -2.2539808118613485E-6
-0.9482404531833322       -5.634952029653369E-7
-0.9417705098312485       0
-0.9353005664791652       -5.634952029653365E-7
-0.9288306231270816       -2.2539808118613485E-6
-0.9223606797749981       -5.071456826688033E-6
-0.9158907364229147       -1.6904856088960114E-6
-0.9094207930708311       1.4076120343453717E-22
-0.9029508497187477       0
-0.8964809063666641       -1.6904856088960103E-6
-0.8900109630145806       -5.071456826688035E-6
-0.8835410196624972       -1.0142913653376067E-5
-0.8770710763104137       -7.325437638549382E-6
-0.8706011329583303       -3.94446642075736E-6
-0.8641311896062467       0
-0.8576612462541633       4.507961623722696E-6
-0.8511913029020797       9.579418450410733E-6
-0.8447213595499963       1.5214370480064101E-5
-0.8382514161979128       -2.8174760148266857E-6
-0.8317814728458294       -1.4650875277098766E-5
-0.8253115294937459       -2.0285827306752133E-5
-0.8188415861416622       -1.9722332103786798E-5
-0.8123716427895789       -1.2960389668202752E-5
-0.8059016994374953       0
-0.7994317560854118       -3.380971217792023E-6
-0.7929618127333283       -6.761942435584046E-6
-0.7864918693812448       -1.0142913653376067E-5
-0.7800219260291612       -1.352388487116809E-5
-0.7735519826770778       -1.6904856088960114E-5
-0.7670820393249943       -2.0285827306752133E-5
-0.7606120959729108       -5.634952029653371E-6
-0.7541421526208274       4.507961623722697E-6
-0.7476722092687439       1.0142913653376067E-5
-0.7412022659166604       1.1269904059306743E-5
-0.734732322564577        7.88893284151472E-6
-0.7282623792124935       0
-0.7217924358604101       1.1269904059306743E-5
-0.7153224925083266       1.4650875277098766E-5
-0.708852549156243        1.0142913653376067E-5
-0.7023826058041596       -2.2539808118613443E-6
-0.6959126624520761       -2.2539808118613492E-5
-0.6894427190999926       -5.071456826688034E-5
-0.6829727757479092       -1.4650875277098762E-5
-0.6765028323958255       9.015923247445394E-6
-0.670032889043742        2.0285827306752133E-5
-0.6635629456916585       1.915883690082147E-5
-0.657093002339575        5.634952029653369E-6
-0.6506230589874915       -2.0285827306752133E-5
-0.6441531156354081       -1.2396894465237417E-5
-0.6376831722833245       -5.634952029653371E-6
-0.631213228931241        0
-0.6247432855791575       4.507961623722697E-6
-0.6182733422270741       7.888932841514722E-6
-0.6118033988749905       1.0142913653376067E-5
-0.6053334555229071       -9.015923247445394E-6
-0.5988635121708236       -1.9158836900821463E-5
-0.5923935688187401       -2.0285827306752133E-5
-0.5859236254666567       -1.2396894465237419E-5
-0.579453682114573        4.507961623722702E-6
-0.5729837387624896       3.0428740960128202E-5
-0.5665137954104061       1.577786568302944E-5
-0.5600438520583227       5.63495202965337E-6
-0.5535739087062392       0
-0.5471039653541557       -1.1269904059306764E-6
-0.5406340220020722       2.253980811861348E-6
-0.5341640786499887       1.0142913653376067E-5
-0.5276941352979052       1.1269904059306743E-5
-0.5212241919458218       1.1269904059306743E-5
-0.5147542485937382       1.0142913653376067E-5
-0.5082843052416548       7.88893284151472E-6
-0.5018143618895713       4.507961623722695E-6
-0.4953444185374878       0
-0.48887447518540433      3.380971217792023E-6
-0.4824045318333208       3.380971217792023E-6
-0.4759345884812373       0
-0.46946464512915387      -6.761942435584043E-6
-0.4629947017770703       -1.6904856088960114E-5
-0.45652475842498685      -3.0428740960128202E-5
-0.45005481507290335      -1.3523884871168091E-5
-0.44358487172081995      8.445672206072231E-22
-0.43711492836873644      1.0142913653376067E-5
-0.43064498501665294      1.690485608896011E-5
-0.4241750416645695       2.028582730675214E-5
-0.417705098312486        2.0285827306752133E-5
-0.4112351549604025       1.6904856088960114E-5
-0.404765211608319        1.3523884871168091E-5
-0.3982952682562355       1.0142913653376067E-5
-0.391825324904152        6.761942435584045E-6
-0.3853553815520685       3.3809712177920207E-6
-0.37888543819998505      0
-0.37241549484790154      -2.253980811861348E-6
-0.3659455514958181       -5.634952029653371E-6
-0.3594756081437346       -1.0142913653376067E-5
-0.35300566479165113      -1.5777865683029436E-5
-0.3465357214395677       -2.2539808118613485E-5
-0.34006577808748417      -3.0428740960128202E-5
-0.3335958347354007       -9.015923247445394E-6
-0.3271258913833172       4.507961623722697E-6
-0.3206559480312337       1.0142913653376067E-5
-0.31418600467915025      7.888932841514722E-6
-0.30771606132706675      -2.2539808118613502E-6
-0.30124611797498324      -2.0285827306752133E-5
-0.2947761746228998       -1.6904856088960114E-5
-0.2883062312708163       -1.3523884871168091E-5
-0.2818362879187328       -1.0142913653376067E-5
-0.2753663445666493       -6.761942435584045E-6
-0.2688964012145658       -3.3809712177920207E-6
-0.2624264578624823       0
-0.2559565145103984       5.634952029653371E-6
-0.24948657115831457      1.2396894465237417E-5
-0.24301662780623065      2.0285827306752133E-5
-0.23654668445414678      2.9301750554197528E-5
-0.2300767411020629       3.9444664207573596E-5
-0.223606797749979        5.071456826688034E-5
-0.2219128068579337       4.057165461350427E-5
-0.2202188159658884       3.0428740960128205E-5
-0.2185248250738431       2.0285827306752133E-5
-0.2168308341817978       1.0142913653376067E-5
-0.21513684328975252      -5.630448137381487E-21
-0.21344285239770722      -1.0142913653376067E-5
-0.21174886150566194      -1.0142913653376067E-5
-0.21005487061361663      -1.0142913653376067E-5
-0.20836087972157133      -1.0142913653376067E-5
-0.20666688882952605      -1.0142913653376067E-5
-0.20497289793748075      -1.0142913653376067E-5
-0.20327890704543544      -1.0142913653376067E-5
-0.20158491615339014      -1.3523884871168091E-5
-0.1998909252613449       -2.028582730675214E-5
-0.19819693436929955      -3.0428740960128202E-5
-0.19650294347725428      -4.3952625831296286E-5
-0.19480895258520897      -6.085748192025641E-5
-0.19311496169316367      -8.114330922700853E-5
-0.1914209708011184       -9.015923247445394E-5
-0.18972697990907308      -1.1044505978120607E-4
-0.18803298901702778      -1.4200079114726495E-4
-0.1863389981249825       -1.8482642657263054E-4
-0.1846450072329372       -2.3892196605730293E-4
-0.1829510163408919       -3.04287409601282E-4
-0.18125702544884661      -3.516210066503704E-4
-0.1795630345568013       -4.1585945978841874E-4
-0.177869043664756        -4.970027690154273E-4
-0.17617505277271073      -5.950509343313959E-4
-0.1744810618806654       -7.100039557363247E-4
-0.17278707098862012      -8.418618332302136E-4
-0.1710930800965748       -0.0010120373845257454
-0.16939908920452953      -0.0012250385712466428
-0.16770509831248423      -0.0014808653933929058
-0.16601110742043892      -0.0017795178509645343
-0.16431711652839365      -0.002120995943961529
-0.16262312563634834      -0.0025052996723838885
-0.16092913474430307      -0.0029560958347561585
-0.15923514385225776      -0.0035308609417808025
-0.15754115296021245      -0.00422959499345782
-0.15584716206816718      -0.005052297989787212
-0.15415317117612187      -0.005998969930768978
-0.15245918028407657      -0.007069610816403119
-0.1507651893920313       -0.008301411330085346
-0.14907119849998599      -0.009795800608349422
-0.14737720760794068      -0.01155277865119534
-0.1456832167158954       -0.013572345458623108
-0.1439892258238501       -0.015854501030632722
-0.1422952349318048       -0.018399245367224187
-0.1406012440397595       -0.021288848768030437
-0.1389072531477142       -0.02470024872678259
-0.1372132622556689       -0.02863344524348064
-0.1355192713636236       -0.033088438318124594
-0.13382528047157832      -0.03806522795071445
-0.13213128957953302      -0.04356381414125021
-0.13043729868748774      -0.049705911853572385
-0.12874330779544244      -0.05676199878510434
-0.12704931690339713      -0.06473207493584607
-0.12535532601135183      -0.07361614030579756
-0.12366133511930653      -0.08341419489495884
-0.12196734422726124      -0.09412623870332991
-0.12027335333521595      -0.1059968286489977
-0.11857936244317066      -0.11924009290908906
-0.11688537155112536      -0.13385603148360395
-0.11519138065908006      -0.14984464437254244
-0.11349738976703476      -0.16720593157590447
-0.11180339887498947      -0.18593989309369008
-0.11010940798294416      -0.2063248955561641
-0.10841541709089889      -0.2284060185795638
-0.10672142619885358      -0.25218326216388914
-0.10502743530680828      -0.2776566263091402
-0.103333444414763        -0.3048261110153169
-0.1016394535227177       -0.3336917162824192
-0.0999454626306724       -0.36441685571930715
-0.09825147173862711      -0.3966747021082609
-0.0965574808465818       -0.43046525544928027
-0.0948634899545365       -0.4657885157423654
-0.09316949906249122      -0.5026444829875163
-0.09147550817044592      -0.5410331571847328
-0.08978151727840063      -0.5808192994853034
-0.08808752638635534      -0.6211069525165132
-0.08639353549431003      -0.661896116278362
-0.08469954460226474      -0.7031867907708501
-0.08300555371021943      -0.7449789759939772
-0.08131156281817414      -0.7872726719477436
-0.07961757192612885      -0.8293984463310262
-0.07792358103408356      -0.8699701009445305
-0.07622959014203826      -0.9089876357882564
-0.07453559924999296      -0.9464510508622038
-0.07284160835794766      -0.9823603461663729
-0.07114761746590237      -1.0167155217007635
-0.06945362657385708      -1.0482520942299218
-0.06775963568181179      -1.0755635797272456
-0.06606564478976648      -1.0986499781927355
-0.06437165389772118      -1.1175112896263912
-0.0626776630056759       -1.132147514028213
-0.060983672113630594     -1.1425586513982005
-0.0592896812215853       -1.147182693033734
-0.05759569032954         -1.1453738734322154
-0.055901699437494706     -1.1371321925936442
-0.0542077085454494       -1.122457650518021
-0.0525137176534041       -1.1013502472053454
-0.05081972676135881      -1.0738099826556176
-0.049125735869313514     -1.0386918346164118
-0.04743174497726822      -0.9968016012279687
-0.04573775408522292      -0.948139282490288
-0.044043763193177626     -0.8927048784033699
-0.04234977230113232      -0.8304983889672145
-0.04065578140908703      -0.7615198141818218
-0.03896179051704173      -0.6858491703660125
-0.03726779962499644      -0.6058418674681821
-0.03557380873295114      -0.5214979054883305
-0.033879817840905845     -0.43281728442645756
-0.032185826948860546     -0.33980000428256346
-0.03049183605681525      -0.24244606505664815
-0.028797845164769954     -0.1424842700314092
-0.027103854272724655     -0.04307357331467036
-0.025409863380679357     0.05578602509356837
-0.023715872488634063     0.154094525193307
-0.022021881596588765     0.2518519269845456
-0.020327890704543466     0.34905823046728396
-0.018633899812498172     0.4427190221329646
-0.016939908920452877     0.530316605414738
-0.015245918028407579     0.6118509803126045
-0.013551927136362284     0.687322146826564
-0.011857936244316988     0.7567301049566164
-0.010163945352271692     0.8200748547027618
-0.008469954460226397     0.8743349347867
-0.0067759635681811006    0.9188859925235455
-0.005081972676135804     0.9537280279132982
-0.0033879817840905086    0.9788610409559582
-0.0016939908920452123    0.9942850316515255
8.326672684688674E-17     0.9999999999999999
0.001693990892045379      0.9944101275865838
0.0033879817840906747     0.9791010899124215
0.005081972676135971      0.954072886977513
0.006775963568181266      0.9193255187818584
0.008469954460226563      0.8748589853254578
0.010163945352271858      0.820673286608311
0.011857936244317155      0.7573837593920562
0.013551927136362451      0.6880265158302707
0.015245918028407746      0.6126015559229543
0.01693990892045304       0.5311088796701073
0.01863389981249834       0.44354848707172945
0.020327890704543633      0.34992037812782095
0.02202188159658893       0.25276028125172567
0.023715872488634222      0.1550265462590117
0.02540986338067952       0.05671917314967897
0.02710385427272481       -0.04216183807627245
0.02879784516477011       -0.14161648741884264
0.030491836056815404      -0.24164477487803143
0.0321858269488607        -0.3390866193556094
0.033879817840906         -0.43220194766481945
0.03557380873295129       -0.5209907598056617
0.037267799624996586      -0.605453055778136
0.038961790517041885      -0.6855888355822426
0.040655781409087176      -0.7613980992179813
0.042349772301132474      -0.830495007995997
0.044043763193177765      -0.8928164504535572
0.045737754085223056      -0.9483624265906623
0.047431744977268354      -0.9971329364073123
0.049125735869313646      -1.039127979903507
0.050819726761358944      -1.0743475570792465
0.052513717653404235      -1.101957695034142
0.05420770854544954       -1.123125955828738
0.05590169943749483       -1.137852339463034
0.05759569032954012       -1.1461368459370302
0.05928968122158543       -1.147979475250727
0.06098367211363072       -1.143380227404124
0.06267766300567602       -1.1329578201300772
0.06437165389772131       -1.1183080718433842
0.0660656447897666        -1.0994309825440454
0.0677596356818119        -1.0763265522320606
0.0694536265738572        -1.0489947809074298
0.0711476174659025        -1.0174356685701533
0.07284160835794778       -0.9830478103139907
0.07453559924999309       -0.9471047052976437
0.07622959014203838       -0.9096063535211123
0.07792358103408367       -0.8705527549843965
0.07961757192612898       -0.8299439096874968
0.08131156281817427       -0.7877798176304124
0.08300555371021957       -0.7454331531275673
0.08469954460226486       -0.7035936343073911
0.08639353549431016       -0.6622612611698836
0.08808752638635545       -0.6214360337150449
0.08978151727840074       -0.5811179519428751
0.09147550817044604       -0.5413070158533739
0.09316949906249133       -0.5028912938864152
0.09486348995453664       -0.46600489790030414
0.09655748084658193       -0.4306478278950411
0.09825147173862722       -0.39682008387062595
0.09994546263067253       -0.36452166582705875
0.10163945352271782       -0.3337525737643395
0.10333344441476311       -0.30485766674668296
0.10502743530680841       -0.27766789621319954
0.10672142619885372       -0.25218326216388914
0.108415417090899         -0.22840376459875192
0.11010940798294432       -0.20632940351778778
0.1118033988749896        -0.1859601789209968
0.11349738976703491       -0.16723974128808242
0.1151913806590802        -0.14989197796959153
0.1168853715511255        -0.13391688896552423
0.1185793624431708        -0.11931447427588046
0.12027335333521608       -0.10608473390066028
0.12196734422726138       -0.09422766783986367
0.12366133511930669       -0.08349759218499772
0.125355326011352         -0.0736792517685297
0.12704931690339727       -0.06477264659045956
0.12874330779544257       -0.05677777665078737
0.13043729868748788       -0.04969464194951308
0.13213128957953318       -0.04352324248663671
0.1338252804715785        -0.03802240231528909
0.1355192713636238        -0.033045612682699226
0.13721326225566907       -0.028592873588867133
0.13890725314771438       -0.024664185033792804
0.14060124403975965       -0.021259547017476232
0.14229523493180496       -0.018378959539917434
0.14398922582385026       -0.01584548510738528
0.14568321671589557       -0.013570091477811248
0.14737720760794085       -0.01155277865119534
0.14907119849998615       -0.009793546627537557
0.15076518939203146       -0.0082923954068379
0.15245918028407673       -0.0070493249890963665
0.15415317117612204       -0.005989954007521534
0.15584716206816734       -0.005050044008975351
0.15754115296021262       -0.00422959499345782
0.1592351438522579        -0.0035286069609689404
0.1609291347443032        -0.0029470799115087127
0.1626231256363485        -0.0024850138450771366
0.16431711652839381       -0.0020815512797539553
0.16601110742043912       -0.0017299302731035846
0.1677050983124844        -0.0014301508251260255
0.1693990892045297        -0.001182212935821277
0.17109308009657498       -9.861166051893398E-4
0.17278707098862028       -8.418618332302136E-4
0.1744810618806656        -7.133849269541168E-4
0.1761750527727109        -5.98431905549188E-4
0.17786904366475617       -4.970027690154273E-4
0.17956303455680148       -4.0909751735283465E-4
0.18125702544884678       -3.347161505614102E-4
0.18295101634089206       -2.738586686411538E-4
0.18464500723293736       -2.468108988988176E-4
0.18633899812498264       -2.1638215793868943E-4
0.18803298901702792       -1.825724457607692E-4
0.18972697990907322       -1.4538176236505694E-4
0.19142097080111847       -1.0481010775155268E-4
0.19311496169316378       -6.0857481920256404E-5
0.19480895258520908       -5.071456826688034E-5
0.1965029434772544        -4.39526258312963E-5
0.19819693436929964       -4.057165461350427E-5
0.19989092526134494       -4.057165461350427E-5
0.20158491615339025       -4.3952625831296286E-5
0.20327890704543553       -5.071456826688034E-5
0.20497289793748083       -4.169864501943495E-5
0.20666688882952614       -3.49367025838509E-5
0.2083608797215714        -3.0428740960128202E-5
0.21005487061361672       -2.8174760148266853E-5
0.21174886150566197       -2.8174760148266853E-5
0.21344285239770727       -3.0428740960128202E-5
0.21513684328975255       -2.4793788930474827E-5
0.21683083418179788       -2.1412817712682808E-5
0.21852482507384313       -2.0285827306752133E-5
0.22021881596588844       -2.1412817712682804E-5
0.22191280685793371       -2.4793788930474834E-5
0.223606797749979         -3.0428740960128202E-5
0.2300767411020625        -1.0142913653376067E-5
0.236546684454146         3.3809712177920232E-6
0.2430166278062295        1.0142913653376067E-5
0.24948657115831302       1.014291365337607E-5
0.2559565145103965        3.3809712177920215E-6
0.26242645786248003       -1.0142913653376067E-5
0.26889640121456354       1.6904856088960114E-5
0.27536634456664705       3.380971217792023E-5
0.28183628791873055       4.057165461350427E-5
0.28830623127081406       3.719068339571225E-5
0.29477617462289757       2.3666798524544153E-5
0.3012461179749811        0
0.3077160613270646        4.507961623722697E-6
0.3141860046791481        7.88893284151472E-6
0.3206559480312316        1.0142913653376067E-5
0.3271258913833151        1.1269904059306743E-5
0.3335958347353986        1.1269904059306743E-5
0.3400657780874821        1.0142913653376067E-5
0.3465357214395656        -1.3523884871168091E-5
0.35300566479164913       -2.7047769742336182E-5
0.35947560814373264       -3.0428740960128202E-5
0.3659455514958161        -2.3666798524544163E-5
0.37241549484789965       -6.761942435584041E-6
0.37888543819998316       2.0285827306752133E-5
0.38535538155206667       1.2396894465237417E-5
0.3918253249041502        5.634952029653371E-6
0.3982952682562337        0
0.40476521160831713       -4.507961623722697E-6
0.4112351549604007        -7.888932841514722E-6
0.4177050983124842        -1.0142913653376067E-5
0.4241750416645677        1.4650875277098764E-5
0.4306449850166512        2.8174760148266857E-5
0.4371149283687347        3.0428740960128202E-5
0.4435848717208182        2.1412817712682815E-5
0.45005481507290174       1.126990405930669E-6
0.45652475842498524       -3.0428740960128202E-5
0.46299470177706875       2.2539808118613485E-6
0.46946464512915226       2.2539808118613485E-5
0.47593458848123577       3.0428740960128202E-5
0.4824045318333192        2.592077933640551E-5
0.4888744751854028        9.01592324744539E-6
0.4953444185374863        -2.0285827306752133E-5
0.5018143618895698        -1.1269904059306743E-6
0.5082843052416532        1.2396894465237417E-5
0.5147542485937368        2.0285827306752133E-5
0.5212241919458203        2.2539808118613485E-5
0.5276941352979038        1.915883690082146E-5
0.5341640786499873        1.0142913653376067E-5
0.5406340220020708        1.1269904059306743E-6
0.5471039653541543        -5.634952029653371E-6
0.5535739087062378        -1.0142913653376067E-5
0.5600438520583213        -1.2396894465237414E-5
0.5665137954104048        -1.2396894465237417E-5
0.5729837387624883        -1.0142913653376067E-5
0.5794536821145718        -5.634952029653371E-6
0.5859236254666553        -2.253980811861348E-6
0.5923935688187388        0
0.5988635121708223        1.1269904059306747E-6
0.6053334555229059        1.1269904059306747E-6
0.6118033988749894        0
0.6182733422270729        -5.634952029653371E-6
0.6247432855791564        -9.015923247445394E-6
0.6312132289312399        -1.0142913653376067E-5
0.6376831722833234        -9.015923247445394E-6
0.6441531156354069        -5.63495202965337E-6
0.6506230589874904        0
0.6570930023395739        -1.2396894465237417E-5
0.6635629456916574        -1.9158836900821463E-5
0.6700328890437409        -2.0285827306752133E-5
0.6765028323958244        -1.577786568302944E-5
0.6829727757479079        -5.634952029653368E-6
0.6894427190999914        1.0142913653376067E-5
0.695912662452075         1.2396894465237417E-5
0.7023826058041585        1.577786568302944E-5
0.7088525491562419        2.0285827306752133E-5
0.7153224925083254        2.5920779336405505E-5
0.7217924358604089        3.268272177198955E-5
0.7282623792124924        4.057165461350427E-5
0.7347323225645759        1.803184649489079E-5
0.7412022659166595        1.126990405930673E-6
0.7476722092687429        -1.0142913653376067E-5
0.7541421526208264        -1.577786568302944E-5
0.7606120959729099        -1.577786568302944E-5
0.7670820393249934        -1.0142913653376067E-5
0.7735519826770769        2.2539808118613485E-6
0.7800219260291604        9.015923247445394E-6
0.7864918693812439        1.0142913653376067E-5
0.7929618127333273        5.634952029653372E-6
0.799431756085411         -4.5079616237227E-6
0.8059016994374943        -2.0285827306752133E-5
0.812371642789578         1.6904856088960114E-6
0.8188415861416614        1.5214370480064103E-5
0.8253115294937449        2.0285827306752133E-5
0.8317814728458284        1.6904856088960114E-5
0.838251416197912         5.071456826688031E-6
0.8447213595499954        -1.5214370480064101E-5
0.851191302902079         -6.1984472326187085E-6
0.8576612462541624        -1.1269904059306738E-6
0.8641311896062459        0
0.8706011329583294        -2.817476014826683E-6
0.877071076310413         -9.579418450410733E-6
0.8835410196624964        -2.0285827306752133E-5
0.89001096301458          -6.1984472326187085E-6
0.8964809063666634        3.94446642075736E-6
0.9029508497187468        1.0142913653376067E-5
0.9094207930708305        1.2396894465237417E-5
0.9158907364229139        1.0706408856341404E-5
0.9223606797749974        5.071456826688033E-6
0.9288306231270809        2.8174760148266857E-6
0.9353005664791645        1.126990405930674E-6
0.9417705098312479        0
0.9482404531833315        -5.634952029653373E-7
0.9547103965354149        -5.634952029653373E-7
0.9611803398874984        0
0.967650283239582         -7.043690037066714E-7
0.9741202265916657        -1.1269904059306743E-6
0.9805901699437491        -1.2678642066720083E-6
0.9870601132958328        -1.1269904059306743E-6
0.9935300566479164        -7.043690037066712E-7
1                         0
